 DBCSR| CPU Multiplication driver                                           XSMM (U)
 DBCSR| Multrec recursion limit                                              512 (U)
 DBCSR| Multiplication stack size                                          30000 (D)
 DBCSR| Maximum elements for images                                    UNLIMITED (U)
 DBCSR| Multiplicative factor virtual images                                   1 (U)
 DBCSR| Use multiplication densification                                       F (D)
 DBCSR| Multiplication size stacks                                             3 (U)
 DBCSR| Use memory pool for CPU allocation                                     F (U)
 DBCSR| Number of 3D layers                                               SINGLE (U)
 DBCSR| Use MPI memory allocation                                              F (U)
 DBCSR| Use RMA algorithm                                                      F (U)
 DBCSR| Use Communication thread                                               T (U)
 DBCSR| Communication thread load                                             60 (D)
 DBCSR| MPI: My process id                                                     0
 DBCSR| MPI: Number of processes                                            1024
 DBCSR| OMP: Current number of threads                                         8
 DBCSR| OMP: Max number of threads                                             8
 DBCSR| ACC: Number of devices/node                                            1
 DBCSR| ACC: Number of stack-buffers per thread                                8 (U)
 DBCSR| ACC: Avoid driver after busy                                           F (U)
 DBCSR| ACC: Process inhomogeneous stacks                                      T (U)
 DBCSR| ACC: Min. flop for processing                                          0 (U)
 DBCSR| ACC: Use G2G algorithm                                                 F (D)
 DBCSR| ACC: Min. flop for sorting                                          4000 (U)
 DBCSR| ACC: Number of binning bins                                         4096 (U)
 DBCSR| ACC: Size of binning bins                                             16 (U)
 DBCSR| ACC: GPU backend is enabled                                            T (D)
 DBCSR| Split modifier for TAS multiplication algorithm                  1.0E+00 (U)


  **** **** ******  **  PROGRAM STARTED AT               2026-02-09 11:10:41.942
 ***** ** ***  *** **   PROGRAM STARTED ON                             nid010025
 **    ****   ******    PROGRAM STARTED BY                          aturner.u6cb
 ***** **    ** ** **   PROGRAM PROCESS ID                                196347
  **** **  *******  **  PROGRAM STARTED IN /lus/lfs1aip2/projects/u6cb/benchmark
                                           s/CP2K/H2O-dft-ls/H2O-dft-ls.NREP6_5d
                                           91fec0-3bd9-4c08-b7ba-1f035ade20fc

 CP2K| version string:                                       CP2K version 2026.1
 CP2K| source code revision number:                                  git:5e54ba2
 CP2K| cp2kflags: omp libint libxc elpa parallel scalapack cosma dbcsr_acc spgli
 CP2K|            b sirius offload_cuda
 CP2K| is freely available from                            https://www.cp2k.org/
 CP2K| Program compiled at                                   2026-02-02 11:57:37
 CP2K| Program compiled on                                               login41
 CP2K| Program compiled for                                              aarch64
 CP2K| Data directory path                            /usr/local/share/cp2k/data
 CP2K| Input file name                                      H2O-dft-ls.NREP6.inp

 GLOBAL| Force Environment number                                              1
 GLOBAL| Basis set file name                                        BASIS_MOLOPT
 GLOBAL| Potential file name                                           POTENTIAL
 GLOBAL| MM Potential file name                                     MM_POTENTIAL
 GLOBAL| Coordinate file name                                      __STD_INPUT__
 GLOBAL| Method name                                                        CP2K
 GLOBAL| Project name                                                        H2O
 GLOBAL| Run type                                                         ENERGY
 GLOBAL| FFT library                                                       FFTW3
 GLOBAL| Diagonalization library                                            ELPA
 GLOBAL| Cholesky decomposition library                                ScaLAPACK
 GLOBAL| DGEMM library                                                      BLAS
 GLOBAL| Minimum number of eigenvectors for ELPA usage                        16
 GLOBAL| Orthonormality check for eigenvectors                          DISABLED
 GLOBAL| Matrix multiplication library                                     COSMA
 GLOBAL| All-to-all communication in single precision                          F
 GLOBAL| FFTs using library dependent lengths                                  T
 GLOBAL| Grid backend                                                       AUTO
 GLOBAL| Global print level                                               MEDIUM
 GLOBAL| MPI I/O enabled                                                       T
 GLOBAL| Total number of message passing processes                          1024
 GLOBAL| Number of distributed systems (nodes)                                32
 GLOBAL| Number of threads for this process                                    8
 GLOBAL| This output is from process                                           0
 GLOBAL| OpenMP stack size per thread (OMP_STACKSIZE)                    default
 GLOBAL| CPU model name                                                  UNKNOWN
 GLOBAL| CPUID                                                              2000

 MEMORY| system memory details [Kb]
 MEMORY|                        rank 0           min           max       average
 MEMORY| MemTotal            898059904     898059904     898059968     898059956
 MEMORY| MemFree             814884032     648616704     823658048     787454746
 MEMORY| Buffers                364736        327936        763328        516094
 MEMORY| Cached                6217152       4218368     173924288      31758009
 MEMORY| Slab                 10768704       9181760      12650944      11267244
 MEMORY| SReclaimable           745728        650496        895744        786232
 MEMORY| MemLikelyFree       822211648     797661184     832043520     820515081


 *** WARNING in environment.F:1084 :: FFT library FFTW3 is not available. ***
 *** Trying FFT library FFTSG.                                            ***


 *** Fundamental physical constants (SI units) ***

 *** Literature: B. J. Mohr and B. N. Taylor,
 ***             CODATA recommended values of the fundamental physical
 ***             constants: 2006, Web Version 5.1
 ***             http://physics.nist.gov/constants

 Speed of light in vacuum [m/s]                             2.99792458000000E+08
 Magnetic constant or permeability of vacuum [N/A**2]       1.25663706143592E-06
 Electric constant or permittivity of vacuum [F/m]          8.85418781762039E-12
 Planck constant (h) [J*s]                                  6.62606896000000E-34
 Planck constant (h-bar) [J*s]                              1.05457162825177E-34
 Elementary charge [C]                                      1.60217648700000E-19
 Electron mass [kg]                                         9.10938215000000E-31
 Electron g factor [ ]                                     -2.00231930436220E+00
 Proton mass [kg]                                           1.67262163700000E-27
 Fine-structure constant                                    7.29735253760000E-03
 Rydberg constant [1/m]                                     1.09737315685270E+07
 Avogadro constant [1/mol]                                  6.02214179000000E+23
 Boltzmann constant [J/K]                                   1.38065040000000E-23
 Atomic mass unit [kg]                                      1.66053878200000E-27
 Bohr radius [m]                                            5.29177208590000E-11

 *** Conversion factors ***

 [u] -> [a.u.]                                              1.82288848426455E+03
 [Angstrom] -> [Bohr] = [a.u.]                              1.88972613288564E+00
 [a.u.] = [Bohr] -> [Angstrom]                              5.29177208590000E-01
 [a.u.] -> [s]                                              2.41888432650478E-17
 [a.u.] -> [fs]                                             2.41888432650478E-02
 [a.u.] -> [J]                                              4.35974393937059E-18
 [a.u.] -> [N]                                              8.23872205491840E-08
 [a.u.] -> [K]                                              3.15774647902944E+05
 [a.u.] -> [kJ/mol]                                         2.62549961709828E+03
 [a.u.] -> [kcal/mol]                                       6.27509468713739E+02
 [a.u.] -> [Pa]                                             2.94210107994716E+13
 [a.u.] -> [bar]                                            2.94210107994716E+08
 [a.u.] -> [atm]                                            2.90362800883016E+08
 [a.u.] -> [eV]                                             2.72113838565563E+01
 [a.u.] -> [Hz]                                             6.57968392072181E+15
 [a.u.] -> [1/cm] (wave numbers)                            2.19474631370540E+05
 [a.u./Bohr**2] -> [1/cm]                                   5.14048714338585E+03
 

 CELL_TOP| Volume [angstrom^3]:                                    206601.158670
 CELL_TOP| Vector a [angstrom    59.117     0.000     0.000   |a| =    59.116800
 CELL_TOP| Vector b [angstrom     0.000    59.117     0.000   |b| =    59.116800
 CELL_TOP| Vector c [angstrom     0.000     0.000    59.117   |c| =    59.116800
 CELL_TOP| Angle (b,c), alpha [degree]:                                90.000000
 CELL_TOP| Angle (a,c), beta  [degree]:                                90.000000
 CELL_TOP| Angle (a,b), gamma [degree]:                                90.000000
 CELL_TOP| Numerically orthorhombic:                                         YES
 CELL_TOP| Periodicity                                                       XYZ

 CELL_UC| Volume [angstrom^3]:                                        956.486846
 CELL_UC| Vector a [angstrom]     9.853     0.000     0.000   |a| =     9.852800
 CELL_UC| Vector b [angstrom]     0.000     9.853     0.000   |b| =     9.852800
 CELL_UC| Vector c [angstrom]     0.000     0.000     9.853   |c| =     9.852800
 CELL_UC| Angle (b,c), alpha [degree]:                                 90.000000
 CELL_UC| Angle (a,c), beta  [degree]:                                 90.000000
 CELL_UC| Angle (a,b), gamma [degree]:                                 90.000000
 CELL_UC| Numerically orthorhombic:                                          YES
 CELL_UC| Periodicity                                                        XYZ

 GENERATE|  Preliminary Number of Bonds generated:                            64
 GENERATE|  Achieved consistency in connectivity generation.
 GENERATE|  Number of Bonds generated:                                        64
 GENERATE|  Preliminary Number of Bends generated:                            32
 GENERATE|  Number of Bends generated:                                        32
 GENERATE|  Number of UB generated:                                           32
 GENERATE|  Preliminary Number of Torsions generated:                          0

 CELL| Volume [angstrom^3]:                                        206601.158670
 CELL| Vector a [angstrom]:      59.117     0.000     0.000   |a| =    59.116800
 CELL| Vector b [angstrom]:       0.000    59.117     0.000   |b| =    59.116800
 CELL| Vector c [angstrom]:       0.000     0.000    59.117   |c| =    59.116800
 CELL| Angle (b,c), alpha [degree]:                                    90.000000
 CELL| Angle (a,c), beta  [degree]:                                    90.000000
 CELL| Angle (a,b), gamma [degree]:                                    90.000000
 CELL| Numerically orthorhombic:                                             YES
 CELL| Periodicity                                                           XYZ

 CELL_REF| Volume [angstrom^3]:                                    206601.158670
 CELL_REF| Vector a [angstrom    59.117     0.000     0.000   |a| =    59.116800
 CELL_REF| Vector b [angstrom     0.000    59.117     0.000   |b| =    59.116800
 CELL_REF| Vector c [angstrom     0.000     0.000    59.117   |c| =    59.116800
 CELL_REF| Angle (b,c), alpha [degree]:                                90.000000
 CELL_REF| Angle (a,c), beta  [degree]:                                90.000000
 CELL_REF| Angle (a,b), gamma [degree]:                                90.000000
 CELL_REF| Numerically orthorhombic:                                         YES
 CELL_REF| Periodicity                                                       XYZ

 *******************************************************************************
 *******************************************************************************
 **                                                                           **
 **     #####                         ##              ##                      **
 **    ##   ##            ##          ##              ##                      **
 **   ##     ##                       ##            ######                    **
 **   ##     ##  ##   ##  ##   #####  ##  ##   ####   ##    #####    #####    **
 **   ##     ##  ##   ##  ##  ##      ## ##   ##      ##   ##   ##  ##   ##   **
 **   ##  ## ##  ##   ##  ##  ##      ####     ###    ##   ######   ######    **
 **    ##  ###   ##   ##  ##  ##      ## ##      ##   ##   ##       ##        **
 **     #######   #####   ##   #####  ##  ##  ####    ##    #####   ##        **
 **           ##                                                    ##        **
 **                                                                           **
 **                                                ... make the atoms dance   **
 **                                                                           **
 **            Copyright (C) by CP2K developers group (2000-2026)             **
 **                      J. Chem. Phys. 152, 194103 (2020)                    **
 **                                                                           **
 *******************************************************************************

 DFT| Spin restricted Kohn-Sham (RKS) calculation                            RKS
 DFT| Multiplicity                                                             1
 DFT| Number of spin states                                                    1
 DFT| Charge                                                                   0
 DFT| Self-interaction correction (SIC)                                       NO
 DFT| Cutoffs: density                                              1.000000E-10
 DFT|          gradient                                             1.000000E-10
 DFT|          tau                                                  1.000000E-10
 DFT|          cutoff_smoothing_range                               0.000000E+00
 DFT| XC density smoothing                                                  NONE
 DFT| XC derivatives                                                          PW

 FUNCTIONAL| PADE:
 FUNCTIONAL| S. Goedecker, M. Teter and J. Hutter, Phys. Rev. B 54, 1703 (1996) 


 QS| Method:                                                                 GPW
 QS| Density plane wave grid type                        NON-SPHERICAL FULLSPACE
 QS| Number of grid levels:                                                    4
 QS| Density cutoff [a.u.]:                                                150.0
 QS| Multi grid cutoff [a.u.]: 1) grid level                               150.0
 QS|                           2) grid level                                50.0
 QS|                           3) grid level                                16.7
 QS|                           4) grid level                                 5.6
 QS| Grid level progression factor:                                          3.0
 QS| Relative density cutoff [a.u.]:                                        20.0
 QS| Interaction thresholds: eps_pgf_orb:                                1.0E-05
 QS|                         eps_filter_matrix:                          0.0E+00
 QS|                         eps_core_charge:                            1.0E-12
 QS|                         eps_rho_gspace:                             1.0E-10
 QS|                         eps_rho_rspace:                             1.0E-10
 QS|                         eps_gvg_rspace:                             1.0E-05
 QS|                         eps_ppl:                                    1.0E-02
 QS|                         eps_ppnl:                                   1.0E-07


 ATOMIC KIND INFORMATION

  1. Atomic kind: O                                     Number of atoms:    6912

     Orbital Basis Set                                        DZVP-MOLOPT-SR-GTH

       Number of orbital shell sets:                                           1
       Number of orbital shells:                                               5
       Number of primitive Cartesian functions:                                5
       Number of Cartesian basis functions:                                   14
       Number of spherical basis functions:                                   13
       Norm type:                                                              2

       Normalised Cartesian orbitals:

                        Set   Shell   Orbital            Exponent    Coefficient

                          1       1    2s               10.389228       0.396646
                                                         3.849621       0.208811
                                                         1.388401      -0.301641
                                                         0.496955      -0.274061
                                                         0.162492      -0.033677

                          1       2    3s               10.389228       0.303673
                                                         3.849621       0.240943
                                                         1.388401      -0.313066
                                                         0.496955      -0.043055
                                                         0.162492       0.213991

                          1       3    3px              10.389228      -1.530415
                                                         3.849621      -1.371928
                                                         1.388401      -0.761951
                                                         0.496955      -0.253695
                                                         0.162492      -0.035541
                          1       3    3py              10.389228      -1.530415
                                                         3.849621      -1.371928
                                                         1.388401      -0.761951
                                                         0.496955      -0.253695
                                                         0.162492      -0.035541
                          1       3    3pz              10.389228      -1.530415
                                                         3.849621      -1.371928
                                                         1.388401      -0.761951
                                                         0.496955      -0.253695
                                                         0.162492      -0.035541

                          1       4    4px              10.389228      -0.565392
                                                         3.849621      -0.038231
                                                         1.388401      -0.382373
                                                         0.496955       0.179070
                                                         0.162492       0.122714
                          1       4    4py              10.389228      -0.565392
                                                         3.849621      -0.038231
                                                         1.388401      -0.382373
                                                         0.496955       0.179070
                                                         0.162492       0.122714
                          1       4    4pz              10.389228      -0.565392
                                                         3.849621      -0.038231
                                                         1.388401      -0.382373
                                                         0.496955       0.179070
                                                         0.162492       0.122714

                          1       5    4dx2             10.389228       1.867377
                                                         3.849621       0.670994
                                                         1.388401       1.353441
                                                         0.496955       0.273538
                                                         0.162492       0.006620
                          1       5    4dxy             10.389228       3.234392
                                                         3.849621       1.162195
                                                         1.388401       2.344229
                                                         0.496955       0.473781
                                                         0.162492       0.011466
                          1       5    4dxz             10.389228       3.234392
                                                         3.849621       1.162195
                                                         1.388401       2.344229
                                                         0.496955       0.473781
                                                         0.162492       0.011466
                          1       5    4dy2             10.389228       1.867377
                                                         3.849621       0.670994
                                                         1.388401       1.353441
                                                         0.496955       0.273538
                                                         0.162492       0.006620
                          1       5    4dyz             10.389228       3.234392
                                                         3.849621       1.162195
                                                         1.388401       2.344229
                                                         0.496955       0.473781
                                                         0.162492       0.011466
                          1       5    4dz2             10.389228       1.867377
                                                         3.849621       0.670994
                                                         1.388401       1.353441
                                                         0.496955       0.273538
                                                         0.162492       0.006620

       Atomic covalent radius [Angstrom]:                                  0.730

       Atomic van der Waals radius [Angstrom]:                             1.520

     GTH Potential information for                                   GTH-PADE-q6

       Description:                       Goedecker-Teter-Hutter pseudopotential
                                           Goedecker et al., PRB 54, 1703 (1996)
                                          Hartwigsen et al., PRB 58, 3641 (1998)
                                                      Krack, TCA 114, 145 (2005)

       Gaussian exponent of the core charge distribution:               8.154466
       Electronic configuration (s p d ...):                               2   4

       Parameters of the local part of the GTH pseudopotential:

                          rloc        C1          C2          C3          C4
                        0.247621  -16.580318    2.395701

       Parameters of the non-local part of the GTH pseudopotential:

                   l      r(l)      h(i,j,l)

                   0    0.221786   18.266917
                   1    0.256829

  2. Atomic kind: H                                     Number of atoms:   13824

     Orbital Basis Set                                        DZVP-MOLOPT-SR-GTH

       Number of orbital shell sets:                                           1
       Number of orbital shells:                                               3
       Number of primitive Cartesian functions:                                5
       Number of Cartesian basis functions:                                    5
       Number of spherical basis functions:                                    5
       Norm type:                                                              2

       Normalised Cartesian orbitals:

                        Set   Shell   Orbital            Exponent    Coefficient

                          1       1    2s               10.068468      -0.133023
                                                         2.680223      -0.177618
                                                         0.791502      -0.258419
                                                         0.239116      -0.107525
                                                         0.082193      -0.014019

                          1       2    3s               10.068468       0.344673
                                                         2.680223       1.819821
                                                         0.791502      -0.999069
                                                         0.239116       0.017430
                                                         0.082193       0.082660

                          1       3    3px              10.068468       0.155326
                                                         2.680223       0.367157
                                                         0.791502       0.311480
                                                         0.239116       0.080105
                                                         0.082193       0.033440
                          1       3    3py              10.068468       0.155326
                                                         2.680223       0.367157
                                                         0.791502       0.311480
                                                         0.239116       0.080105
                                                         0.082193       0.033440
                          1       3    3pz              10.068468       0.155326
                                                         2.680223       0.367157
                                                         0.791502       0.311480
                                                         0.239116       0.080105
                                                         0.082193       0.033440

       Atomic covalent radius [Angstrom]:                                  0.320

       Atomic van der Waals radius [Angstrom]:                             1.090

     GTH Potential information for                                   GTH-PADE-q1

       Description:                       Goedecker-Teter-Hutter pseudopotential
                                           Goedecker et al., PRB 54, 1703 (1996)
                                          Hartwigsen et al., PRB 58, 3641 (1998)
                                                      Krack, TCA 114, 145 (2005)

       Gaussian exponent of the core charge distribution:              12.500000
       Electronic configuration (s p d ...):                                   1

       Parameters of the local part of the GTH pseudopotential:

                          rloc        C1          C2          C3          C4
                        0.200000   -4.180237    0.725075


 TOTAL NUMBERS AND MAXIMUM NUMBERS

  Total number of            - Atomic kinds:                                   2
                             - Atoms:                                      20736
                             - Shell sets:                                 20736
                             - Shells:                                     76032
                             - Primitive Cartesian functions:             103680
                             - Cartesian basis functions:                 165888
                             - Spherical basis functions:                 158976

  Maximum angular momentum of- Orbital basis functions:                        2
                             - Local part of the GTH pseudopotential:          2
                             - Non-local part of the GTH pseudopotential:      0

 PW_GRID| Information for grid number                                          1
 PW_GRID| Grid distributed over                                  1024 processors
 PW_GRID| Real space group dimensions                                    32   32
 PW_GRID| the grid is blocked:                                               YES
 PW_GRID| Cutoff [a.u.]                                                    150.0
 PW_GRID| spherical cutoff:                                                   NO
 PW_GRID|   Bounds   1           -312     312                Points:         625
 PW_GRID|   Bounds   2           -312     312                Points:         625
 PW_GRID|   Bounds   3           -312     312                Points:         625
 PW_GRID| Volume element (a.u.^3)  0.5711E-02     Volume (a.u.^3)   1394213.7440
 PW_GRID| Grid span                                                    FULLSPACE
 PW_GRID|   Distribution                         Average         Max         Min
 PW_GRID|   G-Vectors                           238418.6      250000      225625
 PW_GRID|   G-Rays                                 381.5         400         361
 PW_GRID|   Real Space Points                   238418.6      250000      225625

 PW_GRID| Information for grid number                                          2
 PW_GRID| Number of the reference grid                                         1
 PW_GRID| Grid distributed over                                  1024 processors
 PW_GRID| Real space group dimensions                                    32   32
 PW_GRID| the grid is blocked:                                                NO
 PW_GRID| Cutoff [a.u.]                                                     50.0
 PW_GRID| spherical cutoff:                                                   NO
 PW_GRID|   Bounds   1           -180     179                Points:         360
 PW_GRID|   Bounds   2           -180     179                Points:         360
 PW_GRID|   Bounds   3           -180     179                Points:         360
 PW_GRID| Volume element (a.u.^3)  0.2988E-01     Volume (a.u.^3)   1394213.7440
 PW_GRID| Grid span                                                    FULLSPACE
 PW_GRID|   Distribution                         Average         Max         Min
 PW_GRID|   G-Vectors                            45562.5      144000           0
 PW_GRID|   G-Rays                                 126.6         400           0
 PW_GRID|   Real Space Points                    45562.5       51840       43560

 PW_GRID| Information for grid number                                          3
 PW_GRID| Number of the reference grid                                         1
 PW_GRID| Grid distributed over                                  1024 processors
 PW_GRID| Real space group dimensions                                    32   32
 PW_GRID| the grid is blocked:                                                NO
 PW_GRID| Cutoff [a.u.]                                                     16.7
 PW_GRID| spherical cutoff:                                                   NO
 PW_GRID|   Bounds   1           -108     107                Points:         216
 PW_GRID|   Bounds   2           -108     107                Points:         216
 PW_GRID|   Bounds   3           -108     107                Points:         216
 PW_GRID| Volume element (a.u.^3)  0.1383         Volume (a.u.^3)   1394213.7440
 PW_GRID| Grid span                                                    FULLSPACE
 PW_GRID|   Distribution                         Average         Max         Min
 PW_GRID|   G-Vectors                             9841.5       86400           0
 PW_GRID|   G-Rays                                  45.6         400           0
 PW_GRID|   Real Space Points                     9841.5       10584        7776

 PW_GRID| Information for grid number                                          4
 PW_GRID| Number of the reference grid                                         1
 PW_GRID| Grid distributed over                                  1024 processors
 PW_GRID| Real space group dimensions                                    32   32
 PW_GRID| the grid is blocked:                                                NO
 PW_GRID| Cutoff [a.u.]                                                      5.6
 PW_GRID| spherical cutoff:                                                   NO
 PW_GRID|   Bounds   1            -60      59                Points:         120
 PW_GRID|   Bounds   2            -60      59                Points:         120
 PW_GRID|   Bounds   3            -60      59                Points:         120
 PW_GRID| Volume element (a.u.^3)  0.8068         Volume (a.u.^3)   1394213.7440
 PW_GRID| Grid span                                                    FULLSPACE
 PW_GRID|   Distribution                         Average         Max         Min
 PW_GRID|   G-Vectors                             1687.5       48000           0
 PW_GRID|   G-Rays                                  14.1         400           0
 PW_GRID|   Real Space Points                     1687.5        1920        1080

 POISSON| Solver                                                        PERIODIC
 POISSON| Periodicity                                                        XYZ

 RS_GRID| Information for grid number                                          1
 RS_GRID|   Bounds   1           -312     312                Points:         625
 RS_GRID|   Bounds   2           -312     312                Points:         625
 RS_GRID|   Bounds   3           -312     312                Points:         625
 RS_GRID| Real space distribution over                                  8 groups
 RS_GRID| Real space distribution along direction                              1
 RS_GRID| Border size                                                         20
 RS_GRID| Real space distribution over                                  8 groups
 RS_GRID| Real space distribution along direction                              2
 RS_GRID| Border size                                                         20
 RS_GRID| Real space distribution over                                 16 groups
 RS_GRID| Real space distribution along direction                              3
 RS_GRID| Border size                                                         20
 RS_GRID|   Distribution                         Average         Max         Min
 RS_GRID|   Planes                                 118.1         119         118
 RS_GRID|   Distribution                         Average         Max         Min
 RS_GRID|   Planes                                 118.1         119         118
 RS_GRID|   Distribution                         Average         Max         Min
 RS_GRID|   Planes                                  79.1          80          79

 RS_GRID| Information for grid number                                          2
 RS_GRID|   Bounds   1           -180     179                Points:         360
 RS_GRID|   Bounds   2           -180     179                Points:         360
 RS_GRID|   Bounds   3           -180     179                Points:         360
 RS_GRID| Real space distribution over                                  8 groups
 RS_GRID| Real space distribution along direction                              1
 RS_GRID| Border size                                                         20
 RS_GRID| Real space distribution over                                  8 groups
 RS_GRID| Real space distribution along direction                              2
 RS_GRID| Border size                                                         20
 RS_GRID| Real space distribution over                                 16 groups
 RS_GRID| Real space distribution along direction                              3
 RS_GRID| Border size                                                         20
 RS_GRID|   Distribution                         Average         Max         Min
 RS_GRID|   Planes                                  85.0          85          85
 RS_GRID|   Distribution                         Average         Max         Min
 RS_GRID|   Planes                                  85.0          85          85
 RS_GRID|   Distribution                         Average         Max         Min
 RS_GRID|   Planes                                  62.5          63          62

 RS_GRID| Information for grid number                                          3
 RS_GRID|   Bounds   1           -108     107                Points:         216
 RS_GRID|   Bounds   2           -108     107                Points:         216
 RS_GRID|   Bounds   3           -108     107                Points:         216
 RS_GRID| Real space distribution over                                  8 groups
 RS_GRID| Real space distribution along direction                              1
 RS_GRID| Border size                                                         22
 RS_GRID| Real space distribution over                                  8 groups
 RS_GRID| Real space distribution along direction                              2
 RS_GRID| Border size                                                         22
 RS_GRID| Real space distribution over                                 16 groups
 RS_GRID| Real space distribution along direction                              3
 RS_GRID| Border size                                                         22
 RS_GRID|   Distribution                         Average         Max         Min
 RS_GRID|   Planes                                  71.0          71          71
 RS_GRID|   Distribution                         Average         Max         Min
 RS_GRID|   Planes                                  71.0          71          71
 RS_GRID|   Distribution                         Average         Max         Min
 RS_GRID|   Planes                                  57.5          58          57

 RS_GRID| Information for grid number                                          4
 RS_GRID|   Bounds   1            -60      59                Points:         120
 RS_GRID|   Bounds   2            -60      59                Points:         120
 RS_GRID|   Bounds   3            -60      59                Points:         120
 RS_GRID| Real space distribution over                                  8 groups
 RS_GRID| Real space distribution along direction                              1
 RS_GRID| Border size                                                         21
 RS_GRID| Real space distribution over                                  8 groups
 RS_GRID| Real space distribution along direction                              2
 RS_GRID| Border size                                                         21
 RS_GRID| Real space distribution over                                 16 groups
 RS_GRID| Real space distribution along direction                              3
 RS_GRID| Border size                                                         21
 RS_GRID|   Distribution                         Average         Max         Min
 RS_GRID|   Planes                                  57.0          57          57
 RS_GRID|   Distribution                         Average         Max         Min
 RS_GRID|   Planes                                  57.0          57          57
 RS_GRID|   Distribution                         Average         Max         Min
 RS_GRID|   Planes                                  49.5          50          49

 ------------------------------ Linear scaling SCF -----------------------------
 eps_scf:                                                              0.100E-05
 eps_filter:                                                           0.100E-05
 mixing_fraction:                                                      0.450E+00
 max_scf:                                                                      2
 fixed chemical potential (mu)                                                 F
 has unit metric:                                                              F
 Computing inv(S):                                                             T
 Computing sqrt(S):                                                            T
 Computing S preconditioner                                                    T
 S sqrt method:                                                     NEWTONSCHULZ
 S sqrt order:                                                                 3
 Extrapolation order:                                                          4
 S preconditioner type                                                 MOLECULAR
 Polarized Atomic Orbitals (PAO)                                               F
 Purification method                                   Trace resetting 4th order
 Cluster type                                                          MOLECULAR
 Computing Chebyshev                                                           F
 -------------------------------------------------------------------------------



 Guess for atomic kind: O

 Electronic structure
    Total number of core electrons                                          2.00
    Total number of valence electrons                                       6.00
    Total number of electrons                                               8.00
    Multiplicity                                                   not specified
    S   [  2.00] 2.00
    P      4.00


 *******************************************************************************
                  Iteration          Convergence                     Energy [au]
 *******************************************************************************
                          1        0.652009                     -15.640545093142
                          2        0.568598                     -15.649818040272
                          3        0.840904E-02                 -15.708091072845
                          4        0.223668E-02                 -15.708101686641
                          5        0.162349E-02                 -15.708102069348
                          6        0.131706E-02                 -15.708102215045
                          7        0.176016E-06                 -15.708102495552

 Energy components [Hartree]           Total Energy ::          -15.708102495552
                                        Band Energy ::           -2.974422890331
                                     Kinetic Energy ::           11.868402807885
                                   Potential Energy ::          -27.576505303437
                                      Virial (-V/T) ::            2.323522865698
                                        Core Energy ::          -26.257114660425
                                          XC Energy ::           -3.171446029919
                                     Coulomb Energy ::           13.720458194793
                       Total Pseudopotential Energy ::          -38.159866022775
                       Local Pseudopotential Energy ::          -39.453230661064
                    Nonlocal Pseudopotential Energy ::            1.293364638289
                                        Confinement ::            0.343485544649

 Orbital energies  State     L     Occupation   Energy[a.u.]          Energy[eV]

                       1     0          2.000      -0.852776          -23.205223

                       1     1          4.000      -0.317218           -8.631929


 Total Electron Density at R=0:                                         0.000112

 Guess for atomic kind: H

 Electronic structure
    Total number of core electrons                                          0.00
    Total number of valence electrons                                       1.00
    Total number of electrons                                               1.00
    Multiplicity                                                   not specified
    S      1.00


 *******************************************************************************
                  Iteration          Convergence                     Energy [au]
 *******************************************************************************
                          1        0.250941E-02                  -0.375252439250
                          2        0.570686E-04                  -0.375254289096
                          3        0.832213E-09                  -0.375254290053

 Energy components [Hartree]           Total Energy ::           -0.375254290053
                                        Band Energy ::           -0.076313317586
                                     Kinetic Energy ::            0.771359175731
                                   Potential Energy ::           -1.146613465784
                                      Virial (-V/T) ::            1.486484509239
                                        Core Energy ::           -0.456086259369
                                          XC Energy ::           -0.314218638424
                                     Coulomb Energy ::            0.395050607740
                       Total Pseudopotential Energy ::           -1.238480442282
                       Local Pseudopotential Energy ::           -1.238480442282
                    Nonlocal Pseudopotential Energy ::            0.000000000000
                                        Confinement ::            0.110350071812

 Orbital energies  State     L     Occupation   Energy[a.u.]          Energy[eV]

                       1     0          1.000      -0.076313           -2.076591


 Total Electron Density at R=0:                                         0.425028
 Re-scaling the density matrix to get the right number of electrons
                  # Electrons              Trace(P)               Scaling factor
                        55296             55296.000                        1.000

 Energy with the initial guess:   -117190.171516448


 SCF     1   -118349.433161108   -118349.433161108   12.919954

*********************************************************
 Using MIXING_FRACTION=0.450 to mix KS matrix:  iscf=  2
 KS_nw=0.450*KS + 0.550*KS_old
*********************************************************

 SCF     2   -118874.306050903      -524.872889795   12.129169

 SCF not converged! 

 !-----------------------------------------------------------------------------!
                           Hirshfeld Charges

  #Atom  Element  Kind  Ref Charge     Population                    Net charge
      1       O      1       6.000          7.147                        -1.147
      2       H      2       1.000          0.422                         0.578
      3       H      2       1.000          0.416                         0.584
      4       O      1       6.000          7.150                        -1.150
      5       H      2       1.000          0.419                         0.581
      6       H      2       1.000          0.432                         0.568
      7       O      1       6.000          7.155                        -1.155
      8       H      2       1.000          0.422                         0.578
      9       H      2       1.000          0.420                         0.580
     10       O      1       6.000          7.145                        -1.145
     11       H      2       1.000          0.422                         0.578
     12       H      2       1.000          0.425                         0.575
     13       O      1       6.000          7.131                        -1.131
     14       H      2       1.000          0.426                         0.574
     15       H      2       1.000          0.429                         0.571
     16       O      1       6.000          7.146                        -1.146
     17       H      2       1.000          0.420                         0.580
     18       H      2       1.000          0.421                         0.579
     19       O      1       6.000          7.147                        -1.147
     20       H      2       1.000          0.416                         0.584
     21       H      2       1.000          0.418                         0.582
     22       O      1       6.000          7.153                        -1.153
     23       H      2       1.000          0.419                         0.581
     24       H      2       1.000          0.418                         0.582
     25       O      1       6.000          7.156                        -1.156
     26       H      2       1.000          0.433                         0.567
     27       H      2       1.000          0.419                         0.581
     28       O      1       6.000          7.173                        -1.173
     29       H      2       1.000          0.415                         0.585
     30       H      2       1.000          0.426                         0.574
     31       O      1       6.000          7.143                        -1.143
     32       H      2       1.000          0.430                         0.570
     33       H      2       1.000          0.421                         0.579
     34       O      1       6.000          7.183                        -1.183
     35       H      2       1.000          0.417                         0.583
     36       H      2       1.000          0.420                         0.580
     37       O      1       6.000          7.165                        -1.165
     38       H      2       1.000          0.423                         0.577
     39       H      2       1.000          0.418                         0.582
     40       O      1       6.000          7.174                        -1.174
     41       H      2       1.000          0.417                         0.583
     42       H      2       1.000          0.415                         0.585
     43       O      1       6.000          7.202                        -1.202
     44       H      2       1.000          0.417                         0.583
     45       H      2       1.000          0.419                         0.581
     46       O      1       6.000          7.162                        -1.162
     47       H      2       1.000          0.415                         0.585
     48       H      2       1.000          0.426                         0.574
     49       O      1       6.000          7.175                        -1.175
     50       H      2       1.000          0.410                         0.590
     51       H      2       1.000          0.424                         0.576
     52       O      1       6.000          7.171                        -1.171
     53       H      2       1.000          0.425                         0.575
     54       H      2       1.000          0.419                         0.581
     55       O      1       6.000          7.152                        -1.152
     56       H      2       1.000          0.419                         0.581
     57       H      2       1.000          0.424                         0.576
     58       O      1       6.000          7.140                        -1.140
     59       H      2       1.000          0.427                         0.573
     60       H      2       1.000          0.433                         0.567
     61       O      1       6.000          7.152                        -1.152
     62       H      2       1.000          0.415                         0.585
     63       H      2       1.000          0.422                         0.578
     64       O      1       6.000          7.172                        -1.172
     65       H      2       1.000          0.424                         0.576
     66       H      2       1.000          0.421                         0.579
     67       O      1       6.000          7.158                        -1.158
     68       H      2       1.000          0.423                         0.577
     69       H      2       1.000          0.415                         0.585
     70       O      1       6.000          7.155                        -1.155
     71       H      2       1.000          0.423                         0.577
     72       H      2       1.000          0.424                         0.576
     73       O      1       6.000          7.148                        -1.148
     74       H      2       1.000          0.427                         0.573
     75       H      2       1.000          0.420                         0.580
     76       O      1       6.000          7.145                        -1.145
     77       H      2       1.000          0.429                         0.571
     78       H      2       1.000          0.425                         0.575
     79       O      1       6.000          7.156                        -1.156
     80       H      2       1.000          0.415                         0.585
     81       H      2       1.000          0.422                         0.578
     82       O      1       6.000          7.147                        -1.147
     83       H      2       1.000          0.423                         0.577
     84       H      2       1.000          0.424                         0.576
     85       O      1       6.000          7.133                        -1.133
     86       H      2       1.000          0.414                         0.586
     87       H      2       1.000          0.427                         0.573
     88       O      1       6.000          7.168                        -1.168
     89       H      2       1.000          0.417                         0.583
     90       H      2       1.000          0.420                         0.580
     91       O      1       6.000          7.150                        -1.150
     92       H      2       1.000          0.415                         0.585
     93       H      2       1.000          0.428                         0.572
     94       O      1       6.000          7.165                        -1.165
     95       H      2       1.000          0.422                         0.578
     96       H      2       1.000          0.418                         0.582
     97       O      1       6.000          7.147                        -1.147
     98       H      2       1.000          0.422                         0.578
     99       H      2       1.000          0.416                         0.584
    100       O      1       6.000          7.150                        -1.150
    101       H      2       1.000          0.419                         0.581
    102       H      2       1.000          0.432                         0.568
    103       O      1       6.000          7.155                        -1.155
    104       H      2       1.000          0.422                         0.578
    105       H      2       1.000          0.420                         0.580
    106       O      1       6.000          7.145                        -1.145
    107       H      2       1.000          0.422                         0.578
    108       H      2       1.000          0.425                         0.575
    109       O      1       6.000          7.131                        -1.131
    110       H      2       1.000          0.426                         0.574
    111       H      2       1.000          0.429                         0.571
    112       O      1       6.000          7.146                        -1.146
    113       H      2       1.000          0.420                         0.580
    114       H      2       1.000          0.421                         0.579
    115       O      1       6.000          7.147                        -1.147
    116       H      2       1.000          0.416                         0.584
    117       H      2       1.000          0.418                         0.582
    118       O      1       6.000          7.153                        -1.153
    119       H      2       1.000          0.419                         0.581
    120       H      2       1.000          0.418                         0.582
    121       O      1       6.000          7.156                        -1.156
    122       H      2       1.000          0.433                         0.567
    123       H      2       1.000          0.419                         0.581
    124       O      1       6.000          7.173                        -1.173
    125       H      2       1.000          0.415                         0.585
    126       H      2       1.000          0.426                         0.574
    127       O      1       6.000          7.143                        -1.143
    128       H      2       1.000          0.430                         0.570
    129       H      2       1.000          0.421                         0.579
    130       O      1       6.000          7.183                        -1.183
    131       H      2       1.000          0.417                         0.583
    132       H      2       1.000          0.420                         0.580
    133       O      1       6.000          7.165                        -1.165
    134       H      2       1.000          0.423                         0.577
    135       H      2       1.000          0.418                         0.582
    136       O      1       6.000          7.174                        -1.174
    137       H      2       1.000          0.417                         0.583
    138       H      2       1.000          0.415                         0.585
    139       O      1       6.000          7.202                        -1.202
    140       H      2       1.000          0.417                         0.583
    141       H      2       1.000          0.419                         0.581
    142       O      1       6.000          7.162                        -1.162
    143       H      2       1.000          0.415                         0.585
    144       H      2       1.000          0.426                         0.574
    145       O      1       6.000          7.175                        -1.175
    146       H      2       1.000          0.410                         0.590
    147       H      2       1.000          0.424                         0.576
    148       O      1       6.000          7.171                        -1.171
    149       H      2       1.000          0.425                         0.575
    150       H      2       1.000          0.419                         0.581
    151       O      1       6.000          7.152                        -1.152
    152       H      2       1.000          0.419                         0.581
    153       H      2       1.000          0.424                         0.576
    154       O      1       6.000          7.140                        -1.140
    155       H      2       1.000          0.427                         0.573
    156       H      2       1.000          0.433                         0.567
    157       O      1       6.000          7.152                        -1.152
    158       H      2       1.000          0.415                         0.585
    159       H      2       1.000          0.422                         0.578
    160       O      1       6.000          7.172                        -1.172
    161       H      2       1.000          0.424                         0.576
    162       H      2       1.000          0.421                         0.579
    163       O      1       6.000          7.158                        -1.158
    164       H      2       1.000          0.423                         0.577
    165       H      2       1.000          0.415                         0.585
    166       O      1       6.000          7.155                        -1.155
    167       H      2       1.000          0.423                         0.577
    168       H      2       1.000          0.424                         0.576
    169       O      1       6.000          7.148                        -1.148
    170       H      2       1.000          0.427                         0.573
    171       H      2       1.000          0.420                         0.580
    172       O      1       6.000          7.145                        -1.145
    173       H      2       1.000          0.429                         0.571
    174       H      2       1.000          0.425                         0.575
    175       O      1       6.000          7.156                        -1.156
    176       H      2       1.000          0.415                         0.585
    177       H      2       1.000          0.422                         0.578
    178       O      1       6.000          7.147                        -1.147
    179       H      2       1.000          0.423                         0.577
    180       H      2       1.000          0.424                         0.576
    181       O      1       6.000          7.133                        -1.133
    182       H      2       1.000          0.414                         0.586
    183       H      2       1.000          0.427                         0.573
    184       O      1       6.000          7.168                        -1.168
    185       H      2       1.000          0.417                         0.583
    186       H      2       1.000          0.420                         0.580
    187       O      1       6.000          7.150                        -1.150
    188       H      2       1.000          0.415                         0.585
    189       H      2       1.000          0.428                         0.572
    190       O      1       6.000          7.165                        -1.165
    191       H      2       1.000          0.422                         0.578
    192       H      2       1.000          0.418                         0.582
    193       O      1       6.000          7.147                        -1.147
    194       H      2       1.000          0.422                         0.578
    195       H      2       1.000          0.416                         0.584
    196       O      1       6.000          7.149                        -1.149
    197       H      2       1.000          0.419                         0.581
    198       H      2       1.000          0.432                         0.568
    199       O      1       6.000          7.155                        -1.155
    200       H      2       1.000          0.422                         0.578
    201       H      2       1.000          0.420                         0.580
    202       O      1       6.000          7.145                        -1.145
    203       H      2       1.000          0.422                         0.578
    204       H      2       1.000          0.425                         0.575
    205       O      1       6.000          7.131                        -1.131
    206       H      2       1.000          0.426                         0.574
    207       H      2       1.000          0.429                         0.571
    208       O      1       6.000          7.146                        -1.146
    209       H      2       1.000          0.420                         0.580
    210       H      2       1.000          0.421                         0.579
    211       O      1       6.000          7.147                        -1.147
    212       H      2       1.000          0.416                         0.584
    213       H      2       1.000          0.418                         0.582
    214       O      1       6.000          7.153                        -1.153
    215       H      2       1.000          0.419                         0.581
    216       H      2       1.000          0.418                         0.582
    217       O      1       6.000          7.156                        -1.156
    218       H      2       1.000          0.433                         0.567
    219       H      2       1.000          0.419                         0.581
    220       O      1       6.000          7.173                        -1.173
    221       H      2       1.000          0.415                         0.585
    222       H      2       1.000          0.426                         0.574
    223       O      1       6.000          7.143                        -1.143
    224       H      2       1.000          0.430                         0.570
    225       H      2       1.000          0.421                         0.579
    226       O      1       6.000          7.183                        -1.183
    227       H      2       1.000          0.417                         0.583
    228       H      2       1.000          0.420                         0.580
    229       O      1       6.000          7.165                        -1.165
    230       H      2       1.000          0.423                         0.577
    231       H      2       1.000          0.418                         0.582
    232       O      1       6.000          7.174                        -1.174
    233       H      2       1.000          0.417                         0.583
    234       H      2       1.000          0.415                         0.585
    235       O      1       6.000          7.202                        -1.202
    236       H      2       1.000          0.417                         0.583
    237       H      2       1.000          0.419                         0.581
    238       O      1       6.000          7.162                        -1.162
    239       H      2       1.000          0.415                         0.585
    240       H      2       1.000          0.426                         0.574
    241       O      1       6.000          7.175                        -1.175
    242       H      2       1.000          0.410                         0.590
    243       H      2       1.000          0.424                         0.576
    244       O      1       6.000          7.171                        -1.171
    245       H      2       1.000          0.425                         0.575
    246       H      2       1.000          0.419                         0.581
    247       O      1       6.000          7.152                        -1.152
    248       H      2       1.000          0.419                         0.581
    249       H      2       1.000          0.424                         0.576
    250       O      1       6.000          7.140                        -1.140
    251       H      2       1.000          0.427                         0.573
    252       H      2       1.000          0.433                         0.567
    253       O      1       6.000          7.152                        -1.152
    254       H      2       1.000          0.415                         0.585
    255       H      2       1.000          0.422                         0.578
    256       O      1       6.000          7.172                        -1.172
    257       H      2       1.000          0.424                         0.576
    258       H      2       1.000          0.421                         0.579
    259       O      1       6.000          7.158                        -1.158
    260       H      2       1.000          0.423                         0.577
    261       H      2       1.000          0.415                         0.585
    262       O      1       6.000          7.155                        -1.155
    263       H      2       1.000          0.423                         0.577
    264       H      2       1.000          0.424                         0.576
    265       O      1       6.000          7.148                        -1.148
    266       H      2       1.000          0.427                         0.573
    267       H      2       1.000          0.420                         0.580
    268       O      1       6.000          7.145                        -1.145
    269       H      2       1.000          0.429                         0.571
    270       H      2       1.000          0.425                         0.575
    271       O      1       6.000          7.156                        -1.156
    272       H      2       1.000          0.415                         0.585
    273       H      2       1.000          0.422                         0.578
    274       O      1       6.000          7.147                        -1.147
    275       H      2       1.000          0.423                         0.577
    276       H      2       1.000          0.424                         0.576
    277       O      1       6.000          7.133                        -1.133
    278       H      2       1.000          0.414                         0.586
    279       H      2       1.000          0.427                         0.573
    280       O      1       6.000          7.168                        -1.168
    281       H      2       1.000          0.417                         0.583
    282       H      2       1.000          0.420                         0.580
    283       O      1       6.000          7.150                        -1.150
    284       H      2       1.000          0.415                         0.585
    285       H      2       1.000          0.428                         0.572
    286       O      1       6.000          7.165                        -1.165
    287       H      2       1.000          0.422                         0.578
    288       H      2       1.000          0.418                         0.582
    289       O      1       6.000          7.147                        -1.147
    290       H      2       1.000          0.422                         0.578
    291       H      2       1.000          0.416                         0.584
    292       O      1       6.000          7.149                        -1.149
    293       H      2       1.000          0.419                         0.581
    294       H      2       1.000          0.432                         0.568
    295       O      1       6.000          7.155                        -1.155
    296       H      2       1.000          0.422                         0.578
    297       H      2       1.000          0.420                         0.580
    298       O      1       6.000          7.145                        -1.145
    299       H      2       1.000          0.422                         0.578
    300       H      2       1.000          0.425                         0.575
    301       O      1       6.000          7.131                        -1.131
    302       H      2       1.000          0.426                         0.574
    303       H      2       1.000          0.429                         0.571
    304       O      1       6.000          7.146                        -1.146
    305       H      2       1.000          0.420                         0.580
    306       H      2       1.000          0.421                         0.579
    307       O      1       6.000          7.147                        -1.147
    308       H      2       1.000          0.416                         0.584
    309       H      2       1.000          0.418                         0.582
    310       O      1       6.000          7.153                        -1.153
    311       H      2       1.000          0.419                         0.581
    312       H      2       1.000          0.418                         0.582
    313       O      1       6.000          7.156                        -1.156
    314       H      2       1.000          0.433                         0.567
    315       H      2       1.000          0.419                         0.581
    316       O      1       6.000          7.173                        -1.173
    317       H      2       1.000          0.415                         0.585
    318       H      2       1.000          0.426                         0.574
    319       O      1       6.000          7.143                        -1.143
    320       H      2       1.000          0.430                         0.570
    321       H      2       1.000          0.421                         0.579
    322       O      1       6.000          7.183                        -1.183
    323       H      2       1.000          0.417                         0.583
    324       H      2       1.000          0.420                         0.580
    325       O      1       6.000          7.165                        -1.165
    326       H      2       1.000          0.423                         0.577
    327       H      2       1.000          0.418                         0.582
    328       O      1       6.000          7.174                        -1.174
    329       H      2       1.000          0.417                         0.583
    330       H      2       1.000          0.415                         0.585
    331       O      1       6.000          7.202                        -1.202
    332       H      2       1.000          0.417                         0.583
    333       H      2       1.000          0.419                         0.581
    334       O      1       6.000          7.162                        -1.162
    335       H      2       1.000          0.415                         0.585
    336       H      2       1.000          0.426                         0.574
    337       O      1       6.000          7.175                        -1.175
    338       H      2       1.000          0.410                         0.590
    339       H      2       1.000          0.424                         0.576
    340       O      1       6.000          7.171                        -1.171
    341       H      2       1.000          0.425                         0.575
    342       H      2       1.000          0.419                         0.581
    343       O      1       6.000          7.151                        -1.151
    344       H      2       1.000          0.419                         0.581
    345       H      2       1.000          0.424                         0.576
    346       O      1       6.000          7.140                        -1.140
    347       H      2       1.000          0.427                         0.573
    348       H      2       1.000          0.433                         0.567
    349       O      1       6.000          7.152                        -1.152
    350       H      2       1.000          0.415                         0.585
    351       H      2       1.000          0.422                         0.578
    352       O      1       6.000          7.172                        -1.172
    353       H      2       1.000          0.424                         0.576
    354       H      2       1.000          0.421                         0.579
    355       O      1       6.000          7.158                        -1.158
    356       H      2       1.000          0.423                         0.577
    357       H      2       1.000          0.415                         0.585
    358       O      1       6.000          7.155                        -1.155
    359       H      2       1.000          0.423                         0.577
    360       H      2       1.000          0.424                         0.576
    361       O      1       6.000          7.148                        -1.148
    362       H      2       1.000          0.427                         0.573
    363       H      2       1.000          0.420                         0.580
    364       O      1       6.000          7.145                        -1.145
    365       H      2       1.000          0.429                         0.571
    366       H      2       1.000          0.425                         0.575
    367       O      1       6.000          7.156                        -1.156
    368       H      2       1.000          0.415                         0.585
    369       H      2       1.000          0.422                         0.578
    370       O      1       6.000          7.147                        -1.147
    371       H      2       1.000          0.423                         0.577
    372       H      2       1.000          0.424                         0.576
    373       O      1       6.000          7.133                        -1.133
    374       H      2       1.000          0.414                         0.586
    375       H      2       1.000          0.427                         0.573
    376       O      1       6.000          7.168                        -1.168
    377       H      2       1.000          0.417                         0.583
    378       H      2       1.000          0.420                         0.580
    379       O      1       6.000          7.150                        -1.150
    380       H      2       1.000          0.415                         0.585
    381       H      2       1.000          0.428                         0.572
    382       O      1       6.000          7.165                        -1.165
    383       H      2       1.000          0.422                         0.578
    384       H      2       1.000          0.418                         0.582
    385       O      1       6.000          7.147                        -1.147
    386       H      2       1.000          0.422                         0.578
    387       H      2       1.000          0.416                         0.584
    388       O      1       6.000          7.149                        -1.149
    389       H      2       1.000          0.419                         0.581
    390       H      2       1.000          0.432                         0.568
    391       O      1       6.000          7.155                        -1.155
    392       H      2       1.000          0.422                         0.578
    393       H      2       1.000          0.420                         0.580
    394       O      1       6.000          7.145                        -1.145
    395       H      2       1.000          0.422                         0.578
    396       H      2       1.000          0.425                         0.575
    397       O      1       6.000          7.131                        -1.131
    398       H      2       1.000          0.426                         0.574
    399       H      2       1.000          0.429                         0.571
    400       O      1       6.000          7.146                        -1.146
    401       H      2       1.000          0.420                         0.580
    402       H      2       1.000          0.421                         0.579
    403       O      1       6.000          7.147                        -1.147
[...]
[CRAYBLAS_WARNING] Application linked against multiple cray-libsci libraries
[CRAYBLAS_WARNING] Application linked against multiple cray-libsci libraries
[CRAYBLAS_WARNING] Application linked against multiple cray-libsci libraries
[CRAYBLAS_WARNING] Application linked against multiple cray-libsci libraries
[CRAYBLAS_WARNING] Application linked against multiple cray-libsci libraries
[CRAYBLAS_WARNING] Application linked against multiple cray-libsci libraries
[CRAYBLAS_WARNING] Application linked against multiple cray-libsci libraries
[CRAYBLAS_WARNING] Application linked against multiple cray-libsci libraries
[CRAYBLAS_WARNING] Application linked against multiple cray-libsci libraries
[CRAYBLAS_WARNING] Application linked against multiple cray-libsci libraries
[CRAYBLAS_WARNING] Application linked against multiple cray-libsci libraries
[CRAYBLAS_WARNING] Application linked against multiple cray-libsci libraries
[CRAYBLAS_WARNING] Application linked against multiple cray-libsci libraries
[CRAYBLAS_WARNING] Application linked against multiple cray-libsci libraries
[CRAYBLAS_WARNING] Application linked against multiple cray-libsci libraries
[CRAYBLAS_WARNING] Application linked against multiple cray-libsci libraries
[CRAYBLAS_WARNING] Application linked against multiple cray-libsci libraries
[CRAYBLAS_WARNING] Application linked against multiple cray-libsci libraries
[CRAYBLAS_WARNING] Application linked against multiple cray-libsci libraries
[CRAYBLAS_WARNING] Application linked against multiple cray-libsci libraries
[CRAYBLAS_WARNING] Application linked against multiple cray-libsci libraries
[CRAYBLAS_WARNING] Application linked against multiple cray-libsci libraries
[CRAYBLAS_WARNING] Application linked against multiple cray-libsci libraries
[CRAYBLAS_WARNING] Application linked against multiple cray-libsci libraries
[CRAYBLAS_WARNING] Application linked against multiple cray-libsci libraries
[CRAYBLAS_WARNING] Application linked against multiple cray-libsci libraries
[CRAYBLAS_WARNING] Application linked against multiple cray-libsci libraries
[CRAYBLAS_WARNING] Application linked against multiple cray-libsci libraries
[CRAYBLAS_WARNING] Application linked against multiple cray-libsci libraries
[CRAYBLAS_WARNING] Application linked against multiple cray-libsci libraries
[CRAYBLAS_WARNING] Application linked against multiple cray-libsci libraries
[CRAYBLAS_WARNING] Application linked against multiple cray-libsci libraries
[CRAYBLAS_WARNING] Application linked against multiple cray-libsci libraries
[CRAYBLAS_WARNING] Application linked against multiple cray-libsci libraries
[CRAYBLAS_WARNING] Application linked against multiple cray-libsci libraries
[CRAYBLAS_WARNING] Application linked against multiple cray-libsci libraries
[CRAYBLAS_WARNING] Application linked against multiple cray-libsci libraries
[CRAYBLAS_WARNING] Application linked against multiple cray-libsci libraries
[CRAYBLAS_WARNING] Application linked against multiple cray-libsci libraries
[CRAYBLAS_WARNING] Application linked against multiple cray-libsci libraries
[CRAYBLAS_WARNING] Application linked against multiple cray-libsci libraries
[CRAYBLAS_WARNING] Application linked against multiple cray-libsci libraries
[CRAYBLAS_WARNING] Application linked against multiple cray-libsci libraries
[CRAYBLAS_WARNING] Application linked against multiple cray-libsci libraries
[CRAYBLAS_WARNING] Application linked against multiple cray-libsci libraries
[CRAYBLAS_WARNING] Application linked against multiple cray-libsci libraries
[CRAYBLAS_WARNING] Application linked against multiple cray-libsci libraries
[CRAYBLAS_WARNING] Application linked against multiple cray-libsci libraries
[CRAYBLAS_WARNING] Application linked against multiple cray-libsci libraries
[CRAYBLAS_WARNING] Application linked against multiple cray-libsci libraries
[CRAYBLAS_WARNING] Application linked against multiple cray-libsci libraries
[CRAYBLAS_WARNING] Application linked against multiple cray-libsci libraries
[CRAYBLAS_WARNING] Application linked against multiple cray-libsci libraries
[CRAYBLAS_WARNING] Application linked against multiple cray-libsci libraries
[CRAYBLAS_WARNING] Application linked against multiple cray-libsci libraries
[CRAYBLAS_WARNING] Application linked against multiple cray-libsci libraries
[CRAYBLAS_WARNING] Application linked against multiple cray-libsci libraries
[CRAYBLAS_WARNING] Application linked against multiple cray-libsci libraries
[CRAYBLAS_WARNING] Application linked against multiple cray-libsci libraries
[CRAYBLAS_WARNING] Application linked against multiple cray-libsci libraries
[CRAYBLAS_WARNING] Application linked against multiple cray-libsci libraries
[CRAYBLAS_WARNING] Application linked against multiple cray-libsci libraries
[CRAYBLAS_WARNING] Application linked against multiple cray-libsci libraries
[CRAYBLAS_WARNING] Application linked against multiple cray-libsci libraries
[CRAYBLAS_WARNING] Application linked against multiple cray-libsci libraries
[CRAYBLAS_WARNING] Application linked against multiple cray-libsci libraries
[CRAYBLAS_WARNING] Application linked against multiple cray-libsci libraries
[CRAYBLAS_WARNING] Application linked against multiple cray-libsci libraries
[CRAYBLAS_WARNING] Application linked against multiple cray-libsci libraries
[CRAYBLAS_WARNING] Application linked against multiple cray-libsci libraries
[CRAYBLAS_WARNING] Application linked against multiple cray-libsci libraries
[CRAYBLAS_WARNING] Application linked against multiple cray-libsci libraries
[CRAYBLAS_WARNING] Application linked against multiple cray-libsci libraries
[CRAYBLAS_WARNING] Application linked against multiple cray-libsci libraries
[CRAYBLAS_WARNING] Application linked against multiple cray-libsci libraries
[CRAYBLAS_WARNING] Application linked against multiple cray-libsci libraries
[CRAYBLAS_WARNING] Application linked against multiple cray-libsci libraries
[CRAYBLAS_WARNING] Application linked against multiple cray-libsci libraries
[CRAYBLAS_WARNING] Application linked against multiple cray-libsci libraries
[CRAYBLAS_WARNING] Application linked against multiple cray-libsci libraries
[CRAYBLAS_WARNING] Application linked against multiple cray-libsci libraries
[CRAYBLAS_WARNING] Application linked against multiple cray-libsci libraries
[CRAYBLAS_WARNING] Application linked against multiple cray-libsci libraries
[CRAYBLAS_WARNING] Application linked against multiple cray-libsci libraries
[CRAYBLAS_WARNING] Application linked against multiple cray-libsci libraries
[CRAYBLAS_WARNING] Application linked against multiple cray-libsci libraries
[CRAYBLAS_WARNING] Application linked against multiple cray-libsci libraries
[CRAYBLAS_WARNING] Application linked against multiple cray-libsci libraries
[CRAYBLAS_WARNING] Application linked against multiple cray-libsci libraries
[CRAYBLAS_WARNING] Application linked against multiple cray-libsci libraries
[CRAYBLAS_WARNING] Application linked against multiple cray-libsci libraries
[CRAYBLAS_WARNING] Application linked against multiple cray-libsci libraries
[CRAYBLAS_WARNING] Application linked against multiple cray-libsci libraries
[CRAYBLAS_WARNING] Application linked against multiple cray-libsci libraries
[CRAYBLAS_WARNING] Application linked against multiple cray-libsci libraries
[CRAYBLAS_WARNING] Application linked against multiple cray-libsci libraries
[CRAYBLAS_WARNING] Application linked against multiple cray-libsci libraries
[CRAYBLAS_WARNING] Application linked against multiple cray-libsci libraries
[CRAYBLAS_WARNING] Application linked against multiple cray-libsci libraries
[CRAYBLAS_WARNING] Application linked against multiple cray-libsci libraries
[CRAYBLAS_WARNING] Application linked against multiple cray-libsci libraries
[CRAYBLAS_WARNING] Application linked against multiple cray-libsci libraries
[CRAYBLAS_WARNING] Application linked against multiple cray-libsci libraries
[CRAYBLAS_WARNING] Application linked against multiple cray-libsci libraries
[CRAYBLAS_WARNING] Application linked against multiple cray-libsci libraries
[CRAYBLAS_WARNING] Application linked against multiple cray-libsci libraries
[CRAYBLAS_WARNING] Application linked against multiple cray-libsci libraries
[CRAYBLAS_WARNING] Application linked against multiple cray-libsci libraries
[CRAYBLAS_WARNING] Application linked against multiple cray-libsci libraries
[CRAYBLAS_WARNING] Application linked against multiple cray-libsci libraries
[CRAYBLAS_WARNING] Application linked against multiple cray-libsci libraries
[CRAYBLAS_WARNING] Application linked against multiple cray-libsci libraries
[CRAYBLAS_WARNING] Application linked against multiple cray-libsci libraries
[CRAYBLAS_WARNING] Application linked against multiple cray-libsci libraries
[CRAYBLAS_WARNING] Application linked against multiple cray-libsci libraries
[CRAYBLAS_WARNING] Application linked against multiple cray-libsci libraries
[CRAYBLAS_WARNING] Application linked against multiple cray-libsci libraries
[CRAYBLAS_WARNING] Application linked against multiple cray-libsci libraries
[CRAYBLAS_WARNING] Application linked against multiple cray-libsci libraries
[CRAYBLAS_WARNING] Application linked against multiple cray-libsci libraries
[CRAYBLAS_WARNING] Application linked against multiple cray-libsci libraries
[CRAYBLAS_WARNING] Application linked against multiple cray-libsci libraries
[CRAYBLAS_WARNING] Application linked against multiple cray-libsci libraries
[CRAYBLAS_WARNING] Application linked against multiple cray-libsci libraries
[CRAYBLAS_WARNING] Application linked against multiple cray-libsci libraries
[CRAYBLAS_WARNING] Application linked against multiple cray-libsci libraries
[CRAYBLAS_WARNING] Application linked against multiple cray-libsci libraries
[CRAYBLAS_WARNING] Application linked against multiple cray-libsci libraries
[CRAYBLAS_WARNING] Application linked against multiple cray-libsci libraries
[CRAYBLAS_WARNING] Application linked against multiple cray-libsci libraries
[CRAYBLAS_WARNING] Application linked against multiple cray-libsci libraries
[CRAYBLAS_WARNING] Application linked against multiple cray-libsci libraries
[CRAYBLAS_WARNING] Application linked against multiple cray-libsci libraries
[CRAYBLAS_WARNING] Application linked against multiple cray-libsci libraries
[CRAYBLAS_WARNING] Application linked against multiple cray-libsci libraries
[CRAYBLAS_WARNING] Application linked against multiple cray-libsci libraries
[CRAYBLAS_WARNING] Application linked against multiple cray-libsci libraries
[CRAYBLAS_WARNING] Application linked against multiple cray-libsci libraries
[CRAYBLAS_WARNING] Application linked against multiple cray-libsci libraries
[CRAYBLAS_WARNING] Application linked against multiple cray-libsci libraries
[CRAYBLAS_WARNING] Application linked against multiple cray-libsci libraries
[CRAYBLAS_WARNING] Application linked against multiple cray-libsci libraries
[CRAYBLAS_WARNING] Application linked against multiple cray-libsci libraries
[CRAYBLAS_WARNING] Application linked against multiple cray-libsci libraries
[CRAYBLAS_WARNING] Application linked against multiple cray-libsci libraries
[CRAYBLAS_WARNING] Application linked against multiple cray-libsci libraries
[CRAYBLAS_WARNING] Application linked against multiple cray-libsci libraries
[CRAYBLAS_WARNING] Application linked against multiple cray-libsci libraries
[CRAYBLAS_WARNING] Application linked against multiple cray-libsci libraries
[CRAYBLAS_WARNING] Application linked against multiple cray-libsci libraries
[CRAYBLAS_WARNING] Application linked against multiple cray-libsci libraries
[CRAYBLAS_WARNING] Application linked against multiple cray-libsci libraries
[CRAYBLAS_WARNING] Application linked against multiple cray-libsci libraries
[CRAYBLAS_WARNING] Application linked against multiple cray-libsci libraries
[CRAYBLAS_WARNING] Application linked against multiple cray-libsci libraries
[CRAYBLAS_WARNING] Application linked against multiple cray-libsci libraries
[CRAYBLAS_WARNING] Application linked against multiple cray-libsci libraries
[CRAYBLAS_WARNING] Application linked against multiple cray-libsci libraries
[CRAYBLAS_WARNING] Application linked against multiple cray-libsci libraries
[CRAYBLAS_WARNING] Application linked against multiple cray-libsci libraries
[CRAYBLAS_WARNING] Application linked against multiple cray-libsci libraries
[CRAYBLAS_WARNING] Application linked against multiple cray-libsci libraries
[CRAYBLAS_WARNING] Application linked against multiple cray-libsci libraries
[CRAYBLAS_WARNING] Application linked against multiple cray-libsci libraries
[CRAYBLAS_WARNING] Application linked against multiple cray-libsci libraries
[CRAYBLAS_WARNING] Application linked against multiple cray-libsci libraries
[CRAYBLAS_WARNING] Application linked against multiple cray-libsci libraries
[CRAYBLAS_WARNING] Application linked against multiple cray-libsci libraries
[CRAYBLAS_WARNING] Application linked against multiple cray-libsci libraries
[CRAYBLAS_WARNING] Application linked against multiple cray-libsci libraries
[CRAYBLAS_WARNING] Application linked against multiple cray-libsci libraries
[CRAYBLAS_WARNING] Application linked against multiple cray-libsci libraries
[CRAYBLAS_WARNING] Application linked against multiple cray-libsci libraries
[CRAYBLAS_WARNING] Application linked against multiple cray-libsci libraries
[CRAYBLAS_WARNING] Application linked against multiple cray-libsci libraries
[CRAYBLAS_WARNING] Application linked against multiple cray-libsci libraries
[CRAYBLAS_WARNING] Application linked against multiple cray-libsci libraries
[CRAYBLAS_WARNING] Application linked against multiple cray-libsci libraries
[CRAYBLAS_WARNING] Application linked against multiple cray-libsci libraries
[CRAYBLAS_WARNING] Application linked against multiple cray-libsci libraries
[CRAYBLAS_WARNING] Application linked against multiple cray-libsci libraries
[CRAYBLAS_WARNING] Application linked against multiple cray-libsci libraries
[CRAYBLAS_WARNING] Application linked against multiple cray-libsci libraries
[CRAYBLAS_WARNING] Application linked against multiple cray-libsci libraries
[CRAYBLAS_WARNING] Application linked against multiple cray-libsci libraries
[CRAYBLAS_WARNING] Application linked against multiple cray-libsci libraries
[CRAYBLAS_WARNING] Application linked against multiple cray-libsci libraries
[CRAYBLAS_WARNING] Application linked against multiple cray-libsci libraries
[CRAYBLAS_WARNING] Application linked against multiple cray-libsci libraries
[CRAYBLAS_WARNING] Application linked against multiple cray-libsci libraries
[CRAYBLAS_WARNING] Application linked against multiple cray-libsci libraries
[CRAYBLAS_WARNING] Application linked against multiple cray-libsci libraries
[CRAYBLAS_WARNING] Application linked against multiple cray-libsci libraries
[CRAYBLAS_WARNING] Application linked against multiple cray-libsci libraries
[CRAYBLAS_WARNING] Application linked against multiple cray-libsci libraries
[CRAYBLAS_WARNING] Application linked against multiple cray-libsci libraries
[CRAYBLAS_WARNING] Application linked against multiple cray-libsci libraries
[CRAYBLAS_WARNING] Application linked against multiple cray-libsci libraries
[CRAYBLAS_WARNING] Application linked against multiple cray-libsci libraries
[CRAYBLAS_WARNING] Application linked against multiple cray-libsci libraries
[CRAYBLAS_WARNING] Application linked against multiple cray-libsci libraries
[CRAYBLAS_WARNING] Application linked against multiple cray-libsci libraries
[CRAYBLAS_WARNING] Application linked against multiple cray-libsci libraries
[CRAYBLAS_WARNING] Application linked against multiple cray-libsci libraries
[CRAYBLAS_WARNING] Application linked against multiple cray-libsci libraries
[CRAYBLAS_WARNING] Application linked against multiple cray-libsci libraries
[CRAYBLAS_WARNING] Application linked against multiple cray-libsci libraries
[CRAYBLAS_WARNING] Application linked against multiple cray-libsci libraries
[CRAYBLAS_WARNING] Application linked against multiple cray-libsci libraries
[CRAYBLAS_WARNING] Application linked against multiple cray-libsci libraries
[CRAYBLAS_WARNING] Application linked against multiple cray-libsci libraries
[CRAYBLAS_WARNING] Application linked against multiple cray-libsci libraries
[CRAYBLAS_WARNING] Application linked against multiple cray-libsci libraries
[CRAYBLAS_WARNING] Application linked against multiple cray-libsci libraries
[CRAYBLAS_WARNING] Application linked against multiple cray-libsci libraries
[CRAYBLAS_WARNING] Application linked against multiple cray-libsci libraries
[CRAYBLAS_WARNING] Application linked against multiple cray-libsci libraries
[CRAYBLAS_WARNING] Application linked against multiple cray-libsci libraries
[CRAYBLAS_WARNING] Application linked against multiple cray-libsci libraries
[CRAYBLAS_WARNING] Application linked against multiple cray-libsci libraries
[CRAYBLAS_WARNING] Application linked against multiple cray-libsci libraries
[CRAYBLAS_WARNING] Application linked against multiple cray-libsci libraries
[CRAYBLAS_WARNING] Application linked against multiple cray-libsci libraries
[CRAYBLAS_WARNING] Application linked against multiple cray-libsci libraries
[CRAYBLAS_WARNING] Application linked against multiple cray-libsci libraries
[CRAYBLAS_WARNING] Application linked against multiple cray-libsci libraries
[CRAYBLAS_WARNING] Application linked against multiple cray-libsci libraries
[CRAYBLAS_WARNING] Application linked against multiple cray-libsci libraries
[CRAYBLAS_WARNING] Application linked against multiple cray-libsci libraries
[CRAYBLAS_WARNING] Application linked against multiple cray-libsci libraries
[CRAYBLAS_WARNING] Application linked against multiple cray-libsci libraries
[CRAYBLAS_WARNING] Application linked against multiple cray-libsci libraries
[CRAYBLAS_WARNING] Application linked against multiple cray-libsci libraries
[CRAYBLAS_WARNING] Application linked against multiple cray-libsci libraries
[CRAYBLAS_WARNING] Application linked against multiple cray-libsci libraries
[CRAYBLAS_WARNING] Application linked against multiple cray-libsci libraries
[CRAYBLAS_WARNING] Application linked against multiple cray-libsci libraries
[CRAYBLAS_WARNING] Application linked against multiple cray-libsci libraries
[CRAYBLAS_WARNING] Application linked against multiple cray-libsci libraries
[CRAYBLAS_WARNING] Application linked against multiple cray-libsci libraries
[CRAYBLAS_WARNING] Application linked against multiple cray-libsci libraries
[CRAYBLAS_WARNING] Application linked against multiple cray-libsci libraries
[CRAYBLAS_WARNING] Application linked against multiple cray-libsci libraries
[CRAYBLAS_WARNING] Application linked against multiple cray-libsci libraries
[CRAYBLAS_WARNING] Application linked against multiple cray-libsci libraries
[CRAYBLAS_WARNING] Application linked against multiple cray-libsci libraries
[CRAYBLAS_WARNING] Application linked against multiple cray-libsci libraries
[CRAYBLAS_WARNING] Application linked against multiple cray-libsci libraries
[CRAYBLAS_WARNING] Application linked against multiple cray-libsci libraries
[CRAYBLAS_WARNING] Application linked against multiple cray-libsci libraries
[CRAYBLAS_WARNING] Application linked against multiple cray-libsci libraries
[CRAYBLAS_WARNING] Application linked against multiple cray-libsci libraries
[CRAYBLAS_WARNING] Application linked against multiple cray-libsci libraries
[CRAYBLAS_WARNING] Application linked against multiple cray-libsci libraries
[CRAYBLAS_WARNING] Application linked against multiple cray-libsci libraries
[CRAYBLAS_WARNING] Application linked against multiple cray-libsci libraries
[CRAYBLAS_WARNING] Application linked against multiple cray-libsci libraries
[CRAYBLAS_WARNING] Application linked against multiple cray-libsci libraries
[CRAYBLAS_WARNING] Application linked against multiple cray-libsci libraries
